 VARIABLES ="x" "y" "z"
 ZONE  T = Block1, I=31, J=97, K=2, DATAPACKING=BLOCK, VARLOCATION=([1-3]=NODAL)
-0.152400000000000E+000
-0.147320000000017E+000
-0.142240000000035E+000
-0.137160000000052E+000
-0.132080000000069E+000
-0.127000000000087E+000
-0.121920000000093E+000
-0.116840000000100E+000
-0.111760000000117E+000
-0.106680000000135E+000
-0.101600000000152E+000
-0.965200000001692E-001
-0.914400000001865E-001
-0.863600000001890E-001
-0.812800000002049E-001
-0.762000000002196E-001
-0.711200000001941E-001
-0.660400000001863E-001
-0.609600000001806E-001
-0.558800000001746E-001
-0.508000000001482E-001
-0.457200000001209E-001
-0.406400000001141E-001
-0.355600000001083E-001
-0.304800000001015E-001
-0.254000000000742E-001
-0.203200000000452E-001
-0.152400000000163E-001
-0.101599999999874E-001
-0.507999999998268E-002
 0.000000000000000E+000
-0.152400000000000E+000
-0.147320000000017E+000
-0.142240000000033E+000
-0.137160000000047E+000
-0.132080000000061E+000
-0.127000000000075E+000
-0.121920000000080E+000
-0.116840000000085E+000
-0.111760000000101E+000
-0.106680000000117E+000
-0.101600000000131E+000
-0.965200000001450E-001
-0.914400000001608E-001
-0.863600000001628E-001
-0.812800000001771E-001
-0.762000000001889E-001
-0.711200000001664E-001
-0.660400000001606E-001
-0.609600000001555E-001
-0.558800000001509E-001
-0.508000000001278E-001
-0.457200000001037E-001
-0.406400000000982E-001
-0.355600000000943E-001
-0.304800000000889E-001
-0.254000000000648E-001
-0.203200000000390E-001
-0.152400000000130E-001
-0.101599999999868E-001
-0.507999999998323E-002
 0.000000000000000E+000
-0.152400000000000E+000
-0.147320000000018E+000
-0.142240000000032E+000
-0.137160000000043E+000
-0.132080000000054E+000
-0.127000000000065E+000
-0.121920000000067E+000
-0.116840000000072E+000
-0.111760000000086E+000
-0.106680000000100E+000
-0.101600000000111E+000
-0.965200000001227E-001
-0.914400000001369E-001
-0.863600000001385E-001
-0.812800000001512E-001
-0.762000000001604E-001
-0.711200000001408E-001
-0.660400000001367E-001
-0.609600000001324E-001
-0.558800000001290E-001
-0.508000000001089E-001
-0.457200000000878E-001
-0.406400000000835E-001
-0.355600000000813E-001
-0.304800000000773E-001
-0.254000000000561E-001
-0.203200000000333E-001
-0.152400000000099E-001
-0.101599999999862E-001
-0.507999999998373E-002
 0.000000000000000E+000
-0.152400000000000E+000
-0.147320000000018E+000
-0.142240000000031E+000
-0.137160000000039E+000
-0.132080000000047E+000
-0.127000000000055E+000
-0.121920000000055E+000
-0.116840000000059E+000
-0.111760000000072E+000
-0.106680000000085E+000
-0.101600000000093E+000
-0.965200000001020E-001
-0.914400000001148E-001
-0.863600000001160E-001
-0.812800000001273E-001
-0.762000000001340E-001
-0.711200000001171E-001
-0.660400000001146E-001
-0.609600000001109E-001
-0.558800000001087E-001
-0.508000000000914E-001
-0.457200000000730E-001
-0.406400000000699E-001
-0.355600000000692E-001
-0.304800000000665E-001
-0.254000000000480E-001
-0.203200000000280E-001
-0.152400000000070E-001
-0.101599999999857E-001
-0.507999999998420E-002
 0.000000000000000E+000
-0.152400000000000E+000
-0.147320000000018E+000
-0.142240000000030E+000
-0.137160000000035E+000
-0.132080000000041E+000
-0.127000000000046E+000
-0.121920000000044E+000
-0.116840000000048E+000
-0.111760000000059E+000
-0.106680000000071E+000
-0.101600000000077E+000
-0.965200000000828E-001
-0.914400000000943E-001
-0.863600000000951E-001
-0.812800000001052E-001
-0.762000000001096E-001
-0.711200000000952E-001
-0.660400000000942E-001
-0.609600000000910E-001
-0.558800000000899E-001
-0.508000000000752E-001
-0.457200000000593E-001
-0.406400000000572E-001
-0.355600000000581E-001
-0.304800000000565E-001
-0.254000000000405E-001
-0.203200000000230E-001
-0.152400000000043E-001
-0.101599999999852E-001
-0.507999999998463E-002
 0.000000000000000E+000
-0.152400000000000E+000
-0.147320000000018E+000
-0.142240000000029E+000
-0.137160000000032E+000
-0.132080000000035E+000
-0.127000000000038E+000
-0.121920000000034E+000
-0.116840000000037E+000
-0.111760000000047E+000
-0.106680000000058E+000
-0.101600000000061E+000
-0.965200000000650E-001
-0.914400000000754E-001
-0.863600000000758E-001
-0.812800000000847E-001
-0.762000000000870E-001
-0.711200000000748E-001
-0.660400000000752E-001
-0.609600000000726E-001
-0.558800000000725E-001
-0.508000000000601E-001
-0.457200000000467E-001
-0.406400000000456E-001
-0.355600000000477E-001
-0.304800000000473E-001
-0.254000000000336E-001
-0.203200000000185E-001
-0.152400000000019E-001
-0.101599999999848E-001
-0.507999999998504E-002
 0.000000000000000E+000
-0.152400000000000E+000
-0.147320000000018E+000
-0.142240000000028E+000
-0.137160000000029E+000
-0.132080000000030E+000
-0.127000000000030E+000
-0.121920000000025E+000
-0.116840000000027E+000
-0.111760000000036E+000
-0.106680000000045E+000
-0.101600000000047E+000
-0.965200000000486E-001
-0.914400000000579E-001
-0.863600000000579E-001
-0.812800000000657E-001
-0.762000000000661E-001
-0.711200000000560E-001
-0.660400000000577E-001
-0.609600000000556E-001
-0.558800000000563E-001
-0.508000000000462E-001
-0.457200000000350E-001
-0.406400000000348E-001
-0.355600000000382E-001
-0.304800000000388E-001
-0.254000000000272E-001
-0.203200000000143E-001
-0.152399999999996E-001
-0.101599999999844E-001
-0.507999999998541E-002
 0.000000000000000E+000
-0.152400000000000E+000
-0.147320000000018E+000
-0.142240000000027E+000
-0.137160000000026E+000
-0.132080000000024E+000
-0.127000000000023E+000
-0.121920000000016E+000
-0.116840000000018E+000
-0.111760000000026E+000
-0.106680000000034E+000
-0.101600000000034E+000
-0.965200000000334E-001
-0.914400000000417E-001
-0.863600000000414E-001
-0.812800000000481E-001
-0.762000000000467E-001
-0.711200000000386E-001
-0.660400000000414E-001
-0.609600000000398E-001
-0.558800000000414E-001
-0.508000000000334E-001
-0.457200000000241E-001
-0.406400000000247E-001
-0.355600000000293E-001
-0.304800000000308E-001
-0.254000000000212E-001
-0.203200000000103E-001
-0.152399999999975E-001
-0.101599999999840E-001
-0.507999999998575E-002
 0.000000000000000E+000
-0.152400000000000E+000
-0.147320000000018E+000
-0.142240000000026E+000
-0.137160000000023E+000
-0.132080000000020E+000
-0.127000000000016E+000
-0.121920000000008E+000
-0.116840000000009E+000
-0.111760000000017E+000
-0.106680000000024E+000
-0.101600000000021E+000
-0.965200000000193E-001
-0.914400000000266E-001
-0.863600000000261E-001
-0.812800000000318E-001
-0.762000000000287E-001
-0.711200000000225E-001
-0.660400000000264E-001
-0.609600000000252E-001
-0.558800000000275E-001
-0.508000000000214E-001
-0.457200000000140E-001
-0.406400000000155E-001
-0.355600000000211E-001
-0.304800000000235E-001
-0.254000000000158E-001
-0.203200000000067E-001
-0.152399999999955E-001
-0.101599999999837E-001
-0.507999999998607E-002
 0.000000000000000E+000
-0.152400000000000E+000
-0.147320000000018E+000
-0.142240000000025E+000
-0.137160000000020E+000
-0.132080000000015E+000
-0.127000000000010E+000
-0.121920000000001E+000
-0.116840000000001E+000
-0.111760000000008E+000
-0.106680000000014E+000
-0.101600000000010E+000
-0.965200000000063E-001
-0.914400000000127E-001
-0.863600000000119E-001
-0.812800000000168E-001
-0.762000000000122E-001
-0.711200000000075E-001
-0.660400000000124E-001
-0.609600000000116E-001
-0.558800000000147E-001
-0.508000000000104E-001
-0.457200000000047E-001
-0.406400000000069E-001
-0.355600000000135E-001
-0.304800000000167E-001
-0.254000000000107E-001
-0.203200000000034E-001
-0.152399999999937E-001
-0.101599999999833E-001
-0.507999999998637E-002
 0.000000000000000E+000
-0.152400000000000E+000
-0.147320000000018E+000
-0.142240000000025E+000
-0.137160000000018E+000
-0.132080000000011E+000
-0.127000000000005E+000
-0.121919999999994E+000
-0.116839999999994E+000
-0.111760000000000E+000
-0.106680000000005E+000
-0.101599999999999E+000
-0.965199999999942E-001
-0.914399999999998E-001
-0.863599999999987E-001
-0.812800000000028E-001
-0.761999999999968E-001
-0.711199999999937E-001
-0.660399999999996E-001
-0.609599999999991E-001
-0.558800000000029E-001
-0.508000000000002E-001
-0.457199999999962E-001
-0.406399999999989E-001
-0.355600000000065E-001
-0.304800000000104E-001
-0.254000000000060E-001
-0.203200000000003E-001
-0.152399999999920E-001
-0.101599999999830E-001
-0.507999999998664E-002
 0.000000000000000E+000
-0.152400000000000E+000
-0.147320000000018E+000
-0.142240000000024E+000
-0.137160000000016E+000
-0.132080000000008E+000
-0.127000000000000E+000
-0.121919999999988E+000
-0.116839999999987E+000
-0.111759999999993E+000
-0.106679999999997E+000
-0.101599999999990E+000
-0.965199999999830E-001
-0.914399999999879E-001
-0.863599999999866E-001
-0.812799999999899E-001
-0.761999999999825E-001
-0.711199999999809E-001
-0.660399999999876E-001
-0.609599999999875E-001
-0.558799999999919E-001
-0.507999999999907E-001
-0.457199999999882E-001
-0.406399999999916E-001
-0.355600000000000E-001
-0.304800000000046E-001
-0.254000000000016E-001
-0.203199999999974E-001
-0.152399999999905E-001
-0.101599999999828E-001
-0.507999999998689E-002
 0.000000000000000E+000
-0.152400000000000E+000
-0.147320000000018E+000
-0.142240000000023E+000
-0.137160000000014E+000
-0.132080000000004E+000
-0.126999999999995E+000
-0.121919999999982E+000
-0.116839999999981E+000
-0.111759999999986E+000
-0.106679999999989E+000
-0.101599999999981E+000
-0.965199999999726E-001
-0.914399999999769E-001
-0.863599999999753E-001
-0.812799999999779E-001
-0.761999999999693E-001
-0.711199999999690E-001
-0.660399999999765E-001
-0.609599999999768E-001
-0.558799999999817E-001
-0.507999999999819E-001
-0.457199999999808E-001
-0.406399999999848E-001
-0.355599999999939E-001
-0.304799999999992E-001
-0.253999999999976E-001
-0.203199999999947E-001
-0.152399999999890E-001
-0.101599999999825E-001
-0.507999999998712E-002
 0.000000000000000E+000
-0.152400000000000E+000
-0.147320000000018E+000
-0.142240000000023E+000
-0.137160000000012E+000
-0.132080000000001E+000
-0.126999999999990E+000
-0.121919999999976E+000
-0.116839999999975E+000
-0.111759999999979E+000
-0.106679999999982E+000
-0.101599999999972E+000
-0.965199999999630E-001
-0.914399999999666E-001
-0.863599999999649E-001
-0.812799999999669E-001
-0.761999999999571E-001
-0.711199999999581E-001
-0.660399999999663E-001
-0.609599999999668E-001
-0.558799999999723E-001
-0.507999999999739E-001
-0.457199999999739E-001
-0.406399999999785E-001
-0.355599999999884E-001
-0.304799999999942E-001
-0.253999999999938E-001
-0.203199999999923E-001
-0.152399999999877E-001
-0.101599999999823E-001
-0.507999999998734E-002
 0.000000000000000E+000
-0.152400000000000E+000
-0.147320000000018E+000
-0.142240000000022E+000
-0.137160000000010E+000
-0.132079999999998E+000
-0.126999999999986E+000
-0.121919999999971E+000
-0.116839999999970E+000
-0.111759999999973E+000
-0.106679999999976E+000
-0.101599999999965E+000
-0.965199999999542E-001
-0.914399999999571E-001
-0.863599999999553E-001
-0.812799999999566E-001
-0.761999999999458E-001
-0.711199999999479E-001
-0.660399999999568E-001
-0.609599999999577E-001
-0.558799999999636E-001
-0.507999999999663E-001
-0.457199999999676E-001
-0.406399999999726E-001
-0.355599999999832E-001
-0.304799999999896E-001
-0.253999999999904E-001
-0.203199999999900E-001
-0.152399999999865E-001
-0.101599999999820E-001
-0.507999999998754E-002
 0.000000000000000E+000
-0.152400000000000E+000
-0.147320000000018E+000
-0.142240000000022E+000
-0.137160000000009E+000
-0.132079999999995E+000
-0.126999999999982E+000
-0.121919999999967E+000
-0.116839999999965E+000
-0.111759999999968E+000
-0.106679999999969E+000
-0.101599999999957E+000
-0.965199999999459E-001
-0.914399999999484E-001
-0.863599999999463E-001
-0.812799999999471E-001
-0.761999999999354E-001
-0.711199999999385E-001
-0.660399999999481E-001
-0.609599999999491E-001
-0.558799999999555E-001
-0.507999999999594E-001
-0.457199999999617E-001
-0.406399999999672E-001
-0.355599999999784E-001
-0.304799999999853E-001
-0.253999999999872E-001
-0.203199999999879E-001
-0.152399999999853E-001
-0.101599999999818E-001
-0.507999999998773E-002
 0.000000000000000E+000
-0.152400000000000E+000
-0.147320000000019E+000
-0.142240000000021E+000
-0.137160000000007E+000
-0.132079999999993E+000
-0.126999999999979E+000
-0.121919999999962E+000
-0.116839999999961E+000
-0.111759999999963E+000
-0.106679999999964E+000
-0.101599999999951E+000
-0.965199999999383E-001
-0.914399999999403E-001
-0.863599999999380E-001
-0.812799999999383E-001
-0.761999999999257E-001
-0.711199999999298E-001
-0.660399999999399E-001
-0.609599999999412E-001
-0.558799999999480E-001
-0.507999999999529E-001
-0.457199999999563E-001
-0.406399999999622E-001
-0.355599999999740E-001
-0.304799999999814E-001
-0.253999999999842E-001
-0.203199999999859E-001
-0.152399999999843E-001
-0.101599999999816E-001
-0.507999999998790E-002
 0.000000000000000E+000
-0.152400000000000E+000
-0.147320000000019E+000
-0.142240000000021E+000
-0.137160000000006E+000
-0.132079999999991E+000
-0.126999999999975E+000
-0.121919999999958E+000
-0.116839999999956E+000
-0.111759999999958E+000
-0.106679999999959E+000
-0.101599999999945E+000
-0.965199999999313E-001
-0.914399999999327E-001
-0.863599999999304E-001
-0.812799999999302E-001
-0.761999999999167E-001
-0.711199999999217E-001
-0.660399999999324E-001
-0.609599999999339E-001
-0.558799999999412E-001
-0.507999999999470E-001
-0.457199999999513E-001
-0.406399999999576E-001
-0.355599999999699E-001
-0.304799999999777E-001
-0.253999999999814E-001
-0.203199999999841E-001
-0.152399999999833E-001
-0.101599999999815E-001
-0.507999999998806E-002
 0.000000000000000E+000
-0.152400000000000E+000
-0.147320000000019E+000
-0.142240000000021E+000
-0.137160000000005E+000
-0.132079999999988E+000
-0.126999999999972E+000
-0.121919999999955E+000
-0.116839999999952E+000
-0.111759999999953E+000
-0.106679999999954E+000
-0.101599999999939E+000
-0.965199999999247E-001
-0.914399999999258E-001
-0.863599999999232E-001
-0.812799999999226E-001
-0.761999999999084E-001
-0.711199999999142E-001
-0.660399999999255E-001
-0.609599999999271E-001
-0.558799999999348E-001
-0.507999999999414E-001
-0.457199999999466E-001
-0.406399999999533E-001
-0.355599999999661E-001
-0.304799999999743E-001
-0.253999999999789E-001
-0.203199999999824E-001
-0.152399999999824E-001
-0.101599999999813E-001
-0.507999999998821E-002
 0.000000000000000E+000
-0.152400000000000E+000
-0.147320000000019E+000
-0.142240000000020E+000
-0.137160000000003E+000
-0.132079999999986E+000
-0.126999999999969E+000
-0.121919999999951E+000
-0.116839999999949E+000
-0.111759999999949E+000
-0.106679999999949E+000
-0.101599999999934E+000
-0.965199999999187E-001
-0.914399999999193E-001
-0.863599999999167E-001
-0.812799999999156E-001
-0.761999999999007E-001
-0.711199999999073E-001
-0.660399999999190E-001
-0.609599999999209E-001
-0.558799999999288E-001
-0.507999999999363E-001
-0.457199999999423E-001
-0.406399999999493E-001
-0.355599999999626E-001
-0.304799999999712E-001
-0.253999999999765E-001
-0.203199999999808E-001
-0.152399999999816E-001
-0.101599999999812E-001
-0.507999999998834E-002
 0.000000000000000E+000
-0.152400000000000E+000
-0.147320000000019E+000
-0.142240000000020E+000
-0.137160000000002E+000
-0.132079999999984E+000
-0.126999999999967E+000
-0.121919999999948E+000
-0.116839999999945E+000
-0.111759999999946E+000
-0.106679999999945E+000
-0.101599999999929E+000
-0.965199999999131E-001
-0.914399999999134E-001
-0.863599999999106E-001
-0.812799999999092E-001
-0.761999999998936E-001
-0.711199999999009E-001
-0.660399999999131E-001
-0.609599999999151E-001
-0.558799999999233E-001
-0.507999999999316E-001
-0.457199999999383E-001
-0.406399999999456E-001
-0.355599999999593E-001
-0.304799999999683E-001
-0.253999999999744E-001
-0.203199999999794E-001
-0.152399999999808E-001
-0.101599999999810E-001
-0.507999999998847E-002
 0.000000000000000E+000
-0.152400000000000E+000
-0.147320000000019E+000
-0.142240000000020E+000
-0.137160000000001E+000
-0.132079999999983E+000
-0.126999999999964E+000
-0.121919999999945E+000
-0.116839999999942E+000
-0.111759999999942E+000
-0.106679999999941E+000
-0.101599999999924E+000
-0.965199999999079E-001
-0.914399999999078E-001
-0.863599999999050E-001
-0.812799999999032E-001
-0.761999999998870E-001
-0.711199999998950E-001
-0.660399999999075E-001
-0.609599999999097E-001
-0.558799999999182E-001
-0.507999999999272E-001
-0.457199999999346E-001
-0.406399999999422E-001
-0.355599999999563E-001
-0.304799999999656E-001
-0.253999999999723E-001
-0.203199999999781E-001
-0.152399999999801E-001
-0.101599999999809E-001
-0.507999999998858E-002
 0.000000000000000E+000
-0.152400000000000E+000
-0.147320000000019E+000
-0.142240000000019E+000
-0.137160000000000E+000
-0.132079999999981E+000
-0.126999999999962E+000
-0.121919999999942E+000
-0.116839999999939E+000
-0.111759999999939E+000
-0.106679999999938E+000
-0.101599999999920E+000
-0.965199999999031E-001
-0.914399999999027E-001
-0.863599999998998E-001
-0.812799999998977E-001
-0.761999999998809E-001
-0.711199999998895E-001
-0.660399999999024E-001
-0.609599999999047E-001
-0.558799999999135E-001
-0.507999999999232E-001
-0.457199999999312E-001
-0.406399999999390E-001
-0.355599999999535E-001
-0.304799999999631E-001
-0.253999999999705E-001
-0.203199999999768E-001
-0.152399999999794E-001
-0.101599999999808E-001
-0.507999999998869E-002
 0.000000000000000E+000
-0.152400000000000E+000
-0.147320000000019E+000
-0.142240000000019E+000
-0.137159999999999E+000
-0.132079999999980E+000
-0.126999999999960E+000
-0.121919999999940E+000
-0.116839999999937E+000
-0.111759999999936E+000
-0.106679999999935E+000
-0.101599999999916E+000
-0.965199999998987E-001
-0.914399999998980E-001
-0.863599999998949E-001
-0.812799999998925E-001
-0.761999999998752E-001
-0.711199999998844E-001
-0.660399999998976E-001
-0.609599999999001E-001
-0.558799999999092E-001
-0.507999999999194E-001
-0.457199999999280E-001
-0.406399999999361E-001
-0.355599999999509E-001
-0.304799999999608E-001
-0.253999999999687E-001
-0.203199999999757E-001
-0.152399999999788E-001
-0.101599999999807E-001
-0.507999999998879E-002
 0.000000000000000E+000
-0.152400000000000E+000
-0.147320000000019E+000
-0.142240000000019E+000
-0.137159999999999E+000
-0.132079999999978E+000
-0.126999999999958E+000
-0.121919999999937E+000
-0.116839999999934E+000
-0.111759999999933E+000
-0.106679999999932E+000
-0.101599999999913E+000
-0.965199999998946E-001
-0.914399999998936E-001
-0.863599999998905E-001
-0.812799999998878E-001
-0.761999999998700E-001
-0.711199999998797E-001
-0.660399999998933E-001
-0.609599999998959E-001
-0.558799999999051E-001
-0.507999999999159E-001
-0.457199999999251E-001
-0.406399999999334E-001
-0.355599999999485E-001
-0.304799999999586E-001
-0.253999999999671E-001
-0.203199999999747E-001
-0.152399999999782E-001
-0.101599999999806E-001
-0.507999999998889E-002
 0.000000000000000E+000
-0.152400000000000E+000
-0.147320000000019E+000
-0.142240000000019E+000
-0.137159999999998E+000
-0.132079999999977E+000
-0.126999999999956E+000
-0.121919999999935E+000
-0.116839999999932E+000
-0.111759999999931E+000
-0.106679999999929E+000
-0.101599999999909E+000
-0.965199999998908E-001
-0.914399999998896E-001
-0.863599999998863E-001
-0.812799999998834E-001
-0.761999999998651E-001
-0.711199999998753E-001
-0.660399999998892E-001
-0.609599999998919E-001
-0.558799999999014E-001
-0.507999999999127E-001
-0.457199999999224E-001
-0.406399999999309E-001
-0.355599999999463E-001
-0.304799999999566E-001
-0.253999999999656E-001
-0.203199999999737E-001
-0.152399999999777E-001
-0.101599999999805E-001
-0.507999999998897E-002
 0.000000000000000E+000
-0.152400000000000E+000
-0.147320000000019E+000
-0.142240000000018E+000
-0.137159999999997E+000
-0.132079999999976E+000
-0.126999999999955E+000
-0.121919999999933E+000
-0.116839999999930E+000
-0.111759999999928E+000
-0.106679999999926E+000
-0.101599999999906E+000
-0.965199999998872E-001
-0.914399999998858E-001
-0.863599999998825E-001
-0.812799999998793E-001
-0.761999999998606E-001
-0.711199999998713E-001
-0.660399999998854E-001
-0.609599999998883E-001
-0.558799999998979E-001
-0.507999999999097E-001
-0.457199999999199E-001
-0.406399999999286E-001
-0.355599999999442E-001
-0.304799999999548E-001
-0.253999999999643E-001
-0.203199999999728E-001
-0.152399999999772E-001
-0.101599999999804E-001
-0.507999999998905E-002
 0.000000000000000E+000
-0.152400000000000E+000
-0.147320000000019E+000
-0.142240000000018E+000
-0.137159999999997E+000
-0.132079999999975E+000
-0.126999999999953E+000
-0.121919999999931E+000
-0.116839999999928E+000
-0.111759999999926E+000
-0.106679999999924E+000
-0.101599999999903E+000
-0.965199999998840E-001
-0.914399999998823E-001
-0.863599999998790E-001
-0.812799999998755E-001
-0.761999999998565E-001
-0.711199999998675E-001
-0.660399999998819E-001
-0.609599999998849E-001
-0.558799999998947E-001
-0.507999999999069E-001
-0.457199999999176E-001
-0.406399999999264E-001
-0.355599999999423E-001
-0.304799999999531E-001
-0.253999999999630E-001
-0.203199999999719E-001
-0.152399999999767E-001
-0.101599999999803E-001
-0.507999999998913E-002
 0.000000000000000E+000
-0.152400000000000E+000
-0.147320000000019E+000
-0.142240000000018E+000
-0.137159999999996E+000
-0.132079999999974E+000
-0.126999999999952E+000
-0.121919999999930E+000
-0.116839999999926E+000
-0.111759999999924E+000
-0.106679999999922E+000
-0.101599999999901E+000
-0.965199999998809E-001
-0.914399999998790E-001
-0.863599999998756E-001
-0.812799999998720E-001
-0.761999999998526E-001
-0.711199999998641E-001
-0.660399999998787E-001
-0.609599999998817E-001
-0.558799999998918E-001
-0.507999999999044E-001
-0.457199999999154E-001
-0.406399999999244E-001
-0.355599999999406E-001
-0.304799999999515E-001
-0.253999999999618E-001
-0.203199999999711E-001
-0.152399999999763E-001
-0.101599999999802E-001
-0.507999999998920E-002
 0.000000000000000E+000
-0.152400000000000E+000
-0.147320000000019E+000
-0.142240000000018E+000
-0.137159999999996E+000
-0.132079999999973E+000
-0.126999999999950E+000
-0.121919999999928E+000
-0.116839999999924E+000
-0.111759999999922E+000
-0.106679999999920E+000
-0.101599999999898E+000
-0.965199999998781E-001
-0.914399999998760E-001
-0.863599999998726E-001
-0.812799999998688E-001
-0.761999999998491E-001
-0.711199999998609E-001
-0.660399999998757E-001
-0.609599999998788E-001
-0.558799999998890E-001
-0.507999999999020E-001
-0.457199999999134E-001
-0.406399999999226E-001
-0.355599999999390E-001
-0.304799999999501E-001
-0.253999999999607E-001
-0.203199999999704E-001
-0.152399999999759E-001
-0.101599999999802E-001
-0.507999999998926E-002
 0.000000000000000E+000
-0.152400000000000E+000
-0.147320000000019E+000
-0.142240000000018E+000
-0.137159999999995E+000
-0.132079999999972E+000
-0.126999999999949E+000
-0.121919999999927E+000
-0.116839999999923E+000
-0.111759999999921E+000
-0.106679999999917E+000
-0.101599999999896E+000
-0.965199999998756E-001
-0.914399999998733E-001
-0.863599999998698E-001
-0.812799999998658E-001
-0.761999999998458E-001
-0.711199999998579E-001
-0.660399999998729E-001
-0.609599999998761E-001
-0.558799999998865E-001
-0.507999999998998E-001
-0.457199999999115E-001
-0.406399999999209E-001
-0.355599999999374E-001
-0.304799999999487E-001
-0.253999999999597E-001
-0.203199999999698E-001
-0.152399999999756E-001
-0.101599999999801E-001
-0.507999999998932E-002
 0.000000000000000E+000
-0.152400000000000E+000
-0.147320000000019E+000
-0.142240000000018E+000
-0.137159999999995E+000
-0.132079999999971E+000
-0.126999999999948E+000
-0.121919999999925E+000
-0.116839999999921E+000
-0.111759999999919E+000
-0.106679999999916E+000
-0.101599999999894E+000
-0.965199999998732E-001
-0.914399999998707E-001
-0.863599999998672E-001
-0.812799999998630E-001
-0.761999999998427E-001
-0.711199999998552E-001
-0.660399999998704E-001
-0.609599999998737E-001
-0.558799999998841E-001
-0.507999999998978E-001
-0.457199999999098E-001
-0.406399999999193E-001
-0.355599999999361E-001
-0.304799999999475E-001
-0.253999999999588E-001
-0.203199999999692E-001
-0.152399999999752E-001
-0.101599999999800E-001
-0.507999999998937E-002
 0.000000000000000E+000
-0.152400000000000E+000
-0.147320000000019E+000
-0.142240000000018E+000
-0.137159999999994E+000
-0.132079999999971E+000
-0.126999999999947E+000
-0.121919999999924E+000
-0.116839999999920E+000
-0.111759999999917E+000
-0.106679999999914E+000
-0.101599999999892E+000
-0.965199999998709E-001
-0.914399999998684E-001
-0.863599999998648E-001
-0.812799999998605E-001
-0.761999999998399E-001
-0.711199999998526E-001
-0.660399999998680E-001
-0.609599999998714E-001
-0.558799999998819E-001
-0.507999999998959E-001
-0.457199999999083E-001
-0.406399999999179E-001
-0.355599999999347E-001
-0.304799999999463E-001
-0.253999999999579E-001
-0.203199999999686E-001
-0.152399999999749E-001
-0.101599999999800E-001
-0.507999999998942E-002
 0.000000000000000E+000
-0.152400000000000E+000
-0.147320000000019E+000
-0.142240000000017E+000
-0.137159999999994E+000
-0.132079999999970E+000
-0.126999999999946E+000
-0.121919999999923E+000
-0.116839999999919E+000
-0.111759999999916E+000
-0.106679999999913E+000
-0.101599999999890E+000
-0.965199999998688E-001
-0.914399999998662E-001
-0.863599999998625E-001
-0.812799999998581E-001
-0.761999999998373E-001
-0.711199999998503E-001
-0.660399999998658E-001
-0.609599999998692E-001
-0.558799999998799E-001
-0.507999999998942E-001
-0.457199999999068E-001
-0.406399999999165E-001
-0.355599999999335E-001
-0.304799999999453E-001
-0.253999999999571E-001
-0.203199999999681E-001
-0.152399999999746E-001
-0.101599999999799E-001
-0.507999999998947E-002
 0.000000000000000E+000
-0.152400000000000E+000
-0.147320000000019E+000
-0.142240000000017E+000
-0.137159999999993E+000
-0.132079999999969E+000
-0.126999999999945E+000
-0.121919999999922E+000
-0.116839999999917E+000
-0.111759999999915E+000
-0.106679999999911E+000
-0.101599999999889E+000
-0.965199999998669E-001
-0.914399999998641E-001
-0.863599999998605E-001
-0.812799999998559E-001
-0.761999999998348E-001
-0.711199999998481E-001
-0.660399999998638E-001
-0.609599999998673E-001
-0.558799999998780E-001
-0.507999999998926E-001
-0.457199999999054E-001
-0.406399999999152E-001
-0.355599999999324E-001
-0.304799999999443E-001
-0.253999999999564E-001
-0.203199999999676E-001
-0.152399999999744E-001
-0.101599999999799E-001
-0.507999999998951E-002
 0.000000000000000E+000
-0.152400000000000E+000
-0.147320000000019E+000
-0.142240000000017E+000
-0.137159999999993E+000
-0.132079999999969E+000
-0.126999999999944E+000
-0.121919999999921E+000
-0.116839999999916E+000
-0.111759999999914E+000
-0.106679999999910E+000
-0.101599999999887E+000
-0.965199999998652E-001
-0.914399999998623E-001
-0.863599999998585E-001
-0.812799999998539E-001
-0.761999999998326E-001
-0.711199999998461E-001
-0.660399999998619E-001
-0.609599999998654E-001
-0.558799999998763E-001
-0.507999999998911E-001
-0.457199999999042E-001
-0.406399999999141E-001
-0.355599999999314E-001
-0.304799999999433E-001
-0.253999999999557E-001
-0.203199999999671E-001
-0.152399999999741E-001
-0.101599999999798E-001
-0.507999999998955E-002
 0.000000000000000E+000
-0.152400000000000E+000
-0.147320000000019E+000
-0.142240000000017E+000
-0.137159999999993E+000
-0.132079999999968E+000
-0.126999999999944E+000
-0.121919999999920E+000
-0.116839999999915E+000
-0.111759999999912E+000
-0.106679999999909E+000
-0.101599999999886E+000
-0.965199999998635E-001
-0.914399999998605E-001
-0.863599999998568E-001
-0.812799999998520E-001
-0.761999999998305E-001
-0.711199999998442E-001
-0.660399999998602E-001
-0.609599999998637E-001
-0.558799999998747E-001
-0.507999999998897E-001
-0.457199999999030E-001
-0.406399999999130E-001
-0.355599999999305E-001
-0.304799999999425E-001
-0.253999999999550E-001
-0.203199999999667E-001
-0.152399999999739E-001
-0.101599999999798E-001
-0.507999999998959E-002
 0.000000000000000E+000
-0.152400000000000E+000
-0.147320000000019E+000
-0.142240000000017E+000
-0.137159999999992E+000
-0.132079999999968E+000
-0.126999999999943E+000
-0.121919999999919E+000
-0.116839999999914E+000
-0.111759999999911E+000
-0.106679999999908E+000
-0.101599999999884E+000
-0.965199999998621E-001
-0.914399999998589E-001
-0.863599999998551E-001
-0.812799999998502E-001
-0.761999999998286E-001
-0.711199999998425E-001
-0.660399999998586E-001
-0.609599999998622E-001
-0.558799999998732E-001
-0.507999999998884E-001
-0.457199999999019E-001
-0.406399999999120E-001
-0.355599999999296E-001
-0.304799999999417E-001
-0.253999999999544E-001
-0.203199999999663E-001
-0.152399999999737E-001
-0.101599999999797E-001
-0.507999999998962E-002
 0.000000000000000E+000
-0.152400000000000E+000
-0.147320000000019E+000
-0.142240000000017E+000
-0.137159999999992E+000
-0.132079999999967E+000
-0.126999999999942E+000
-0.121919999999918E+000
-0.116839999999914E+000
-0.111759999999911E+000
-0.106679999999907E+000
-0.101599999999883E+000
-0.965199999998606E-001
-0.914399999998574E-001
-0.863599999998536E-001
-0.812799999998486E-001
-0.761999999998268E-001
-0.711199999998409E-001
-0.660399999998571E-001
-0.609599999998607E-001
-0.558799999998719E-001
-0.507999999998872E-001
-0.457199999999009E-001
-0.406399999999111E-001
-0.355599999999288E-001
-0.304799999999410E-001
-0.253999999999539E-001
-0.203199999999659E-001
-0.152399999999735E-001
-0.101599999999797E-001
-0.507999999998965E-002
 0.000000000000000E+000
-0.152400000000000E+000
-0.147320000000019E+000
-0.142240000000017E+000
-0.137159999999992E+000
-0.132079999999967E+000
-0.126999999999942E+000
-0.121919999999917E+000
-0.116839999999913E+000
-0.111759999999910E+000
-0.106679999999906E+000
-0.101599999999882E+000
-0.965199999998594E-001
-0.914399999998560E-001
-0.863599999998522E-001
-0.812799999998471E-001
-0.761999999998251E-001
-0.711199999998394E-001
-0.660399999998557E-001
-0.609599999998594E-001
-0.558799999998706E-001
-0.507999999998861E-001
-0.457199999999000E-001
-0.406399999999102E-001
-0.355599999999280E-001
-0.304799999999403E-001
-0.253999999999534E-001
-0.203199999999656E-001
-0.152399999999733E-001
-0.101599999999797E-001
-0.507999999998968E-002
 0.000000000000000E+000
-0.152400000000000E+000
-0.147320000000019E+000
-0.142240000000017E+000
-0.137159999999992E+000
-0.132079999999966E+000