 VARIABLES ="x" "y" "z"
 ZONE  T = Block1, I=121, J=29, K=2, DATAPACKING=BLOCK, VARLOCATION=([1-3]=NODAL)
 0.000000000000000E+000
 0.199999999999582E-002
 0.399999999999162E-002
 0.599999999998750E-002
 0.799999999998320E-002
 0.999999999997819E-002
 0.119999999999728E-001
 0.139999999999676E-001
 0.159999999999633E-001
 0.179999999999599E-001
 0.199999999999567E-001
 0.219999999999535E-001
 0.239999999999503E-001
 0.259999999999471E-001
 0.279999999999439E-001
 0.299999999999400E-001
 0.319999999999338E-001
 0.339999999999270E-001
 0.359999999999204E-001
 0.379999999999150E-001
 0.399999999999092E-001
 0.419999999999024E-001
 0.439999999998962E-001
 0.459999999998908E-001
 0.479999999998846E-001
 0.499999999998778E-001
 0.519999999998719E-001
 0.539999999998666E-001
 0.559999999998600E-001
 0.579999999998532E-001
 0.599999999998477E-001
 0.619999999998423E-001
 0.639999999998368E-001
 0.659999999998294E-001
 0.679999999998197E-001
 0.699999999998109E-001
 0.719999999998051E-001
 0.739999999998012E-001
 0.759999999997972E-001
 0.779999999997933E-001
 0.799999999997875E-001
 0.819999999997787E-001
 0.839999999997690E-001
 0.859999999997616E-001
 0.879999999997573E-001
 0.899999999997534E-001
 0.919999999997495E-001
 0.939999999997452E-001
 0.959999999997378E-001
 0.979999999997281E-001
 0.999999999997193E-001
 0.101999999999714E+000
 0.103999999999710E+000
 0.105999999999706E+000
 0.107999999999702E+000
 0.109999999999696E+000
 0.111999999999687E+000
 0.113999999999677E+000
 0.115999999999670E+000
 0.117999999999666E+000
 0.119999999999665E+000
 0.121999999999669E+000
 0.123999999999677E+000
 0.125999999999685E+000
 0.127999999999692E+000
 0.129999999999700E+000
 0.131999999999708E+000
 0.133999999999713E+000
 0.135999999999714E+000
 0.137999999999720E+000
 0.139999999999727E+000
 0.141999999999735E+000
 0.143999999999743E+000
 0.145999999999750E+000
 0.147999999999753E+000
 0.149999999999754E+000
 0.151999999999756E+000
 0.153999999999759E+000
 0.155999999999766E+000
 0.157999999999774E+000
 0.159999999999782E+000
 0.161999999999789E+000
 0.163999999999795E+000
 0.165999999999796E+000
 0.167999999999801E+000
 0.169999999999809E+000
 0.171999999999817E+000
 0.173999999999824E+000
 0.175999999999832E+000
 0.177999999999835E+000
 0.179999999999836E+000
 0.181999999999838E+000
 0.183999999999841E+000
 0.185999999999848E+000
 0.187999999999856E+000
 0.189999999999864E+000
 0.191999999999871E+000
 0.193999999999876E+000
 0.195999999999878E+000
 0.197999999999883E+000
 0.199999999999891E+000
 0.201999999999899E+000
 0.203999999999906E+000
 0.205999999999914E+000
 0.207999999999916E+000
 0.209999999999918E+000
 0.211999999999920E+000
 0.213999999999923E+000
 0.215999999999930E+000
 0.217999999999938E+000
 0.219999999999945E+000
 0.221999999999953E+000
 0.223999999999958E+000
 0.225999999999960E+000
 0.227999999999965E+000
 0.229999999999973E+000
 0.231999999999980E+000
 0.233999999999988E+000
 0.235999999999996E+000
 0.237999999999998E+000
 0.240000000000000E+000
 0.000000000000000E+000
 0.199999999999684E-002
 0.399999999999379E-002
 0.599999999999166E-002
 0.799999999998939E-002
 0.999999999998651E-002
 0.119999999999833E-001
 0.139999999999798E-001
 0.159999999999766E-001
 0.179999999999747E-001
 0.199999999999733E-001
 0.219999999999719E-001
 0.239999999999705E-001
 0.259999999999691E-001
 0.279999999999669E-001
 0.299999999999640E-001
 0.319999999999592E-001
 0.339999999999540E-001
 0.359999999999498E-001
 0.379999999999466E-001
 0.399999999999431E-001
 0.419999999999387E-001
 0.439999999999344E-001
 0.459999999999302E-001
 0.479999999999259E-001
 0.499999999999216E-001
 0.519999999999180E-001
 0.539999999999148E-001
 0.559999999999106E-001
 0.579999999999054E-001
 0.599999999999012E-001
 0.619999999998970E-001
 0.639999999998929E-001
 0.659999999998880E-001
 0.679999999998812E-001
 0.699999999998752E-001
 0.719999999998717E-001
 0.739999999998693E-001
 0.759999999998663E-001
 0.779999999998639E-001
 0.799999999998604E-001
 0.819999999998544E-001
 0.839999999998476E-001
 0.859999999998428E-001
 0.879999999998396E-001
 0.899999999998367E-001
 0.919999999998337E-001
 0.939999999998306E-001
 0.959999999998258E-001
 0.979999999998189E-001
 0.999999999998129E-001
 0.101999999999809E+000
 0.103999999999807E+000
 0.105999999999804E+000
 0.107999999999802E+000
 0.109999999999798E+000
 0.111999999999792E+000
 0.113999999999785E+000
 0.115999999999781E+000
 0.117999999999778E+000
 0.119999999999778E+000
 0.121999999999782E+000
 0.123999999999788E+000
 0.125999999999792E+000
 0.127999999999796E+000
 0.129999999999801E+000
 0.131999999999806E+000
 0.133999999999809E+000
 0.135999999999810E+000
 0.137999999999814E+000
 0.139999999999820E+000
 0.141999999999825E+000
 0.143999999999830E+000
 0.145999999999835E+000
 0.147999999999836E+000
 0.149999999999837E+000
 0.151999999999839E+000
 0.153999999999840E+000
 0.155999999999845E+000
 0.157999999999850E+000
 0.159999999999855E+000
 0.161999999999860E+000
 0.163999999999865E+000
 0.165999999999866E+000
 0.167999999999868E+000
 0.169999999999874E+000
 0.171999999999879E+000
 0.173999999999883E+000
 0.175999999999888E+000
 0.177999999999890E+000
 0.179999999999890E+000
 0.181999999999890E+000
 0.183999999999892E+000
 0.185999999999898E+000
 0.187999999999903E+000
 0.189999999999909E+000
 0.191999999999914E+000
 0.193999999999917E+000
 0.195999999999917E+000
 0.197999999999921E+000
 0.199999999999926E+000
 0.201999999999931E+000
 0.203999999999936E+000
 0.205999999999941E+000
 0.207999999999942E+000
 0.209999999999943E+000
 0.211999999999943E+000
 0.213999999999945E+000
 0.215999999999951E+000
 0.217999999999956E+000
 0.219999999999962E+000
 0.221999999999968E+000
 0.223999999999973E+000
 0.225999999999973E+000
 0.227999999999976E+000
 0.229999999999981E+000
 0.231999999999987E+000
 0.233999999999993E+000
 0.235999999999998E+000
 0.238000000000000E+000
 0.240000000000000E+000
 0.000000000000000E+000
 0.199999999999770E-002
 0.399999999999560E-002
 0.599999999999513E-002
 0.799999999999454E-002
 0.999999999999344E-002
 0.119999999999921E-001
 0.139999999999901E-001
 0.159999999999877E-001
 0.179999999999869E-001
 0.199999999999871E-001
 0.219999999999872E-001
 0.239999999999874E-001
 0.259999999999875E-001
 0.279999999999861E-001
 0.299999999999840E-001
 0.319999999999804E-001
 0.339999999999765E-001
 0.359999999999743E-001
 0.379999999999729E-001
 0.399999999999713E-001
 0.419999999999689E-001
 0.439999999999662E-001
 0.459999999999631E-001
 0.479999999999604E-001
 0.499999999999580E-001
 0.519999999999564E-001
 0.539999999999550E-001
 0.559999999999529E-001
 0.579999999999490E-001
 0.599999999999457E-001
 0.619999999999426E-001
 0.639999999999396E-001
 0.659999999999368E-001
 0.679999999999325E-001
 0.699999999999288E-001
 0.719999999999272E-001
 0.739999999999260E-001
 0.759999999999239E-001
 0.779999999999228E-001
 0.799999999999212E-001
 0.819999999999174E-001
 0.839999999999131E-001
 0.859999999999104E-001
 0.879999999999082E-001
 0.899999999999061E-001
 0.919999999999040E-001
 0.939999999999017E-001
 0.959999999998990E-001
 0.979999999998947E-001
 0.999999999998910E-001
 0.101999999999889E+000
 0.103999999999888E+000
 0.105999999999886E+000
 0.107999999999885E+000
 0.109999999999883E+000
 0.111999999999880E+000
 0.113999999999875E+000
 0.115999999999872E+000
 0.117999999999872E+000
 0.119999999999873E+000
 0.121999999999876E+000
 0.123999999999880E+000
 0.125999999999882E+000
 0.127999999999883E+000
 0.129999999999885E+000
 0.131999999999889E+000
 0.133999999999890E+000
 0.135999999999889E+000
 0.137999999999894E+000
 0.139999999999897E+000
 0.141999999999900E+000
 0.143999999999903E+000
 0.145999999999906E+000
 0.147999999999905E+000
 0.149999999999906E+000
 0.151999999999908E+000
 0.153999999999907E+000
 0.155999999999909E+000
 0.157999999999913E+000
 0.159999999999915E+000
 0.161999999999919E+000
 0.163999999999923E+000
 0.165999999999923E+000
 0.167999999999924E+000
 0.169999999999927E+000
 0.171999999999930E+000
 0.173999999999931E+000
 0.175999999999935E+000
 0.177999999999937E+000
 0.179999999999935E+000
 0.181999999999934E+000
 0.183999999999934E+000
 0.185999999999938E+000
 0.187999999999943E+000
 0.189999999999947E+000
 0.191999999999950E+000
 0.193999999999951E+000
 0.195999999999950E+000
 0.197999999999952E+000
 0.199999999999955E+000
 0.201999999999958E+000
 0.203999999999961E+000
 0.205999999999964E+000
 0.207999999999963E+000
 0.209999999999963E+000
 0.211999999999963E+000
 0.213999999999963E+000
 0.215999999999967E+000
 0.217999999999971E+000
 0.219999999999976E+000
 0.221999999999980E+000
 0.223999999999984E+000
 0.225999999999985E+000
 0.227999999999985E+000
 0.229999999999989E+000
 0.231999999999993E+000
 0.233999999999997E+000
 0.236000000000001E+000
 0.238000000000002E+000
 0.240000000000000E+000
 0.000000000000000E+000
 0.199999999999841E-002
 0.399999999999710E-002
 0.599999999999802E-002
 0.799999999999883E-002
 0.999999999999922E-002
 0.119999999999994E-001
 0.139999999999986E-001
 0.159999999999969E-001
 0.179999999999972E-001
 0.199999999999986E-001
 0.220000000000000E-001
 0.240000000000015E-001
 0.260000000000029E-001
 0.280000000000021E-001
 0.300000000000007E-001
 0.319999999999980E-001
 0.339999999999952E-001
 0.359999999999947E-001
 0.379999999999949E-001
 0.399999999999948E-001
 0.419999999999941E-001
 0.439999999999928E-001
 0.459999999999905E-001
 0.479999999999891E-001
 0.499999999999884E-001
 0.519999999999883E-001
 0.539999999999885E-001
 0.559999999999880E-001
 0.579999999999852E-001
 0.599999999999829E-001
 0.619999999999806E-001
 0.639999999999785E-001
 0.659999999999776E-001
 0.679999999999753E-001
 0.699999999999734E-001
 0.719999999999734E-001
 0.739999999999733E-001
 0.759999999999719E-001
 0.779999999999718E-001
 0.799999999999718E-001
 0.819999999999700E-001
 0.839999999999677E-001
 0.859999999999667E-001
 0.879999999999653E-001
 0.899999999999639E-001
 0.919999999999625E-001
 0.939999999999611E-001
 0.959999999999601E-001
 0.979999999999578E-001
 0.999999999999560E-001
 0.101999999999956E+000
 0.103999999999956E+000
 0.105999999999955E+000
 0.107999999999954E+000
 0.109999999999954E+000
 0.111999999999953E+000
 0.113999999999950E+000
 0.115999999999949E+000
 0.117999999999950E+000
 0.119999999999952E+000
 0.121999999999954E+000
 0.123999999999956E+000
 0.125999999999956E+000
 0.127999999999955E+000
 0.129999999999956E+000
 0.131999999999958E+000
 0.133999999999956E+000
 0.135999999999956E+000
 0.137999999999960E+000
 0.139999999999962E+000
 0.141999999999962E+000
 0.143999999999964E+000
 0.145999999999965E+000
 0.147999999999962E+000
 0.149999999999964E+000
 0.151999999999965E+000
 0.153999999999963E+000
 0.155999999999964E+000
 0.157999999999966E+000
 0.159999999999966E+000
 0.161999999999968E+000
 0.163999999999972E+000
 0.165999999999972E+000
 0.167999999999970E+000
 0.169999999999972E+000
 0.171999999999973E+000
 0.173999999999972E+000
 0.175999999999974E+000
 0.177999999999976E+000
 0.179999999999973E+000
 0.181999999999970E+000
 0.183999999999970E+000
 0.185999999999973E+000
 0.187999999999975E+000
 0.189999999999978E+000
 0.191999999999980E+000
 0.193999999999979E+000
 0.195999999999977E+000
 0.197999999999978E+000
 0.199999999999980E+000
 0.201999999999980E+000
 0.203999999999982E+000
 0.205999999999983E+000
 0.207999999999980E+000
 0.209999999999980E+000
 0.211999999999979E+000
 0.213999999999979E+000
 0.215999999999982E+000
 0.217999999999984E+000
 0.219999999999987E+000
 0.221999999999991E+000
 0.223999999999995E+000
 0.225999999999994E+000
 0.227999999999993E+000
 0.229999999999995E+000
 0.231999999999997E+000
 0.234000000000000E+000
 0.236000000000003E+000
 0.238000000000003E+000
 0.240000000000000E+000
 0.000000000000000E+000
 0.199999999999901E-002
 0.399999999999836E-002
 0.600000000000043E-002
 0.800000000000241E-002
 0.100000000000040E-001
 0.120000000000055E-001
 0.140000000000057E-001
 0.160000000000046E-001
 0.180000000000057E-001
 0.200000000000082E-001
 0.220000000000107E-001
 0.240000000000132E-001
 0.260000000000156E-001
 0.280000000000155E-001
 0.300000000000147E-001
 0.320000000000127E-001
 0.340000000000108E-001
 0.360000000000117E-001
 0.380000000000131E-001
 0.400000000000144E-001
 0.420000000000151E-001
 0.440000000000149E-001
 0.460000000000133E-001
 0.480000000000130E-001
 0.500000000000138E-001
 0.520000000000150E-001
 0.540000000000165E-001
 0.560000000000173E-001
 0.580000000000155E-001
 0.600000000000139E-001
 0.620000000000123E-001
 0.640000000000110E-001
 0.660000000000115E-001
 0.680000000000109E-001
 0.700000000000107E-001
 0.720000000000119E-001
 0.740000000000128E-001
 0.760000000000119E-001
 0.780000000000127E-001
 0.800000000000140E-001
 0.820000000000138E-001
 0.840000000000131E-001
 0.860000000000136E-001
 0.880000000000130E-001
 0.900000000000121E-001
 0.920000000000112E-001
 0.940000000000105E-001
 0.960000000000110E-001
 0.980000000000104E-001
 0.100000000000010E+000
 0.102000000000011E+000
 0.104000000000012E+000
 0.106000000000011E+000
 0.108000000000012E+000
 0.110000000000014E+000
 0.112000000000013E+000
 0.114000000000013E+000
 0.116000000000013E+000
 0.118000000000015E+000
 0.120000000000017E+000
 0.122000000000019E+000
 0.124000000000020E+000
 0.126000000000018E+000
 0.128000000000015E+000
 0.130000000000014E+000
 0.132000000000015E+000
 0.134000000000012E+000
 0.136000000000011E+000
 0.138000000000015E+000
 0.140000000000015E+000
 0.142000000000014E+000
 0.144000000000015E+000
 0.146000000000014E+000
 0.148000000000010E+000
 0.150000000000012E+000
 0.152000000000013E+000
 0.154000000000010E+000
 0.156000000000009E+000
 0.158000000000010E+000
 0.160000000000008E+000
 0.162000000000009E+000
 0.164000000000013E+000
 0.166000000000012E+000
 0.168000000000009E+000
 0.170000000000010E+000
 0.172000000000009E+000
 0.174000000000006E+000
 0.176000000000006E+000
 0.178000000000008E+000
 0.180000000000004E+000
 0.182000000000000E+000
 0.183999999999999E+000
 0.186000000000001E+000
 0.188000000000003E+000
 0.190000000000004E+000
 0.192000000000005E+000
 0.194000000000002E+000
 0.196000000000000E+000
 0.198000000000000E+000
 0.200000000000000E+000
 0.201999999999999E+000
 0.203999999999999E+000
 0.205999999999999E+000
 0.207999999999995E+000
 0.209999999999994E+000
 0.211999999999992E+000
 0.213999999999992E+000
 0.215999999999993E+000
 0.217999999999995E+000
 0.219999999999997E+000
 0.222000000000000E+000
 0.224000000000003E+000
 0.226000000000002E+000
 0.227999999999999E+000
 0.230000000000000E+000
 0.232000000000001E+000
 0.234000000000003E+000
 0.236000000000005E+000
 0.238000000000004E+000
 0.240000000000000E+000
 0.000000000000000E+000
 0.199999999999950E-002
 0.399999999999940E-002
 0.600000000000244E-002
 0.800000000000539E-002
 0.100000000000080E-001
 0.120000000000105E-001
 0.140000000000116E-001
 0.160000000000110E-001
 0.180000000000128E-001
 0.200000000000162E-001
 0.220000000000195E-001
 0.240000000000229E-001
 0.260000000000263E-001
 0.280000000000266E-001
 0.300000000000262E-001
 0.320000000000250E-001
 0.340000000000238E-001
 0.360000000000259E-001
 0.380000000000284E-001
 0.400000000000307E-001
 0.420000000000327E-001
 0.440000000000333E-001
 0.460000000000323E-001
 0.480000000000330E-001
 0.500000000000349E-001
 0.520000000000372E-001
 0.540000000000397E-001
 0.560000000000418E-001
 0.580000000000407E-001
 0.600000000000396E-001
 0.620000000000387E-001
 0.640000000000380E-001
 0.660000000000397E-001
 0.680000000000405E-001
 0.700000000000417E-001
 0.720000000000440E-001
 0.740000000000456E-001
 0.760000000000452E-001
 0.780000000000468E-001
 0.800000000000491E-001
 0.820000000000502E-001
 0.840000000000510E-001
 0.860000000000528E-001
 0.880000000000526E-001
 0.900000000000522E-001
 0.920000000000518E-001
 0.940000000000517E-001
 0.960000000000534E-001
 0.980000000000542E-001
 0.100000000000055E+000
 0.102000000000058E+000
 0.104000000000059E+000
 0.106000000000059E+000
 0.108000000000061E+000
 0.110000000000063E+000
 0.112000000000064E+000
 0.114000000000065E+000
 0.116000000000066E+000
 0.118000000000069E+000
 0.120000000000072E+000
 0.122000000000073E+000
 0.124000000000073E+000
 0.126000000000070E+000
 0.128000000000065E+000
 0.130000000000063E+000
 0.132000000000062E+000
 0.134000000000059E+000
 0.136000000000057E+000
 0.138000000000060E+000
 0.140000000000060E+000
 0.142000000000057E+000
 0.144000000000057E+000
 0.146000000000055E+000
 0.148000000000050E+000
 0.150000000000052E+000
 0.152000000000053E+000
 0.154000000000049E+000
 0.156000000000046E+000
 0.158000000000046E+000
 0.160000000000044E+000
 0.162000000000043E+000
 0.164000000000047E+000
 0.166000000000045E+000
 0.168000000000041E+000
 0.170000000000041E+000
 0.172000000000039E+000
 0.174000000000034E+000
 0.176000000000033E+000
 0.178000000000035E+000
 0.180000000000030E+000
 0.182000000000025E+000
 0.184000000000024E+000
 0.186000000000025E+000
 0.188000000000026E+000
 0.190000000000026E+000
 0.192000000000026E+000
 0.194000000000022E+000
 0.196000000000019E+000
 0.198000000000018E+000
 0.200000000000017E+000
 0.202000000000014E+000
 0.204000000000014E+000
 0.206000000000012E+000
 0.208000000000007E+000
 0.210000000000005E+000
 0.212000000000004E+000
 0.214000000000002E+000
 0.216000000000003E+000
 0.218000000000004E+000
 0.220000000000005E+000
 0.222000000000007E+000
 0.224000000000010E+000
 0.226000000000008E+000
 0.228000000000004E+000
 0.230000000000004E+000
 0.232000000000005E+000
 0.234000000000005E+000
 0.236000000000006E+000
 0.238000000000005E+000
 0.240000000000000E+000
 0.000000000000000E+000
 0.199999999999992E-002
 0.400000000000028E-002
 0.600000000000411E-002
 0.800000000000788E-002
 0.100000000000114E-001
 0.120000000000148E-001
 0.140000000000165E-001
 0.160000000000164E-001
 0.180000000000187E-001
 0.200000000000228E-001
 0.220000000000269E-001
 0.240000000000311E-001
 0.260000000000352E-001
 0.280000000000359E-001
 0.300000000000359E-001
 0.320000000000352E-001
 0.340000000000347E-001
 0.360000000000377E-001
 0.380000000000411E-001
 0.400000000000443E-001
 0.420000000000472E-001
 0.440000000000486E-001
 0.460000000000481E-001
 0.480000000000496E-001
 0.500000000000525E-001
 0.520000000000557E-001
 0.540000000000591E-001
 0.560000000000621E-001
 0.580000000000616E-001
 0.600000000000611E-001
 0.620000000000607E-001
 0.640000000000606E-001
 0.660000000000633E-001
 0.680000000000653E-001
 0.700000000000675E-001
 0.720000000000708E-001
 0.740000000000730E-001
 0.760000000000729E-001
 0.780000000000751E-001
 0.800000000000784E-001
 0.820000000000807E-001
 0.840000000000826E-001
 0.860000000000854E-001
 0.880000000000857E-001
 0.900000000000857E-001
 0.920000000000857E-001
 0.940000000000860E-001
 0.960000000000888E-001
 0.980000000000907E-001
 0.100000000000093E+000
 0.102000000000096E+000
 0.104000000000098E+000
 0.106000000000098E+000
 0.108000000000101E+000
 0.110000000000104E+000
 0.112000000000106E+000
 0.114000000000108E+000
 0.116000000000111E+000
 0.118000000000115E+000
 0.120000000000118E+000
 0.122000000000118E+000
 0.124000000000118E+000
 0.126000000000113E+000
 0.128000000000106E+000
 0.130000000000104E+000
 0.132000000000102E+000
 0.134000000000097E+000
 0.136000000000095E+000
 0.138000000000098E+000
 0.140000000000097E+000
 0.142000000000093E+000
 0.144000000000092E+000
 0.146000000000089E+000
 0.148000000000084E+000
 0.150000000000085E+000
 0.152000000000087E+000
 0.154000000000081E+000
 0.156000000000078E+000
 0.158000000000077E+000
 0.160000000000073E+000
 0.162000000000072E+000
 0.164000000000075E+000
 0.166000000000073E+000
 0.168000000000068E+000
 0.170000000000067E+000
 0.172000000000064E+000
 0.174000000000057E+000
 0.176000000000056E+000
 0.178000000000057E+000
 0.180000000000052E+000
 0.182000000000046E+000
 0.184000000000045E+000
 0.186000000000045E+000
 0.188000000000044E+000
 0.190000000000044E+000
 0.192000000000043E+000
 0.194000000000038E+000
 0.196000000000034E+000
 0.198000000000034E+000
 0.200000000000031E+000
 0.202000000000027E+000
 0.204000000000026E+000
 0.206000000000023E+000
 0.208000000000017E+000
 0.210000000000015E+000
 0.212000000000013E+000
 0.214000000000011E+000
 0.216000000000011E+000
 0.218000000000011E+000
 0.220000000000011E+000
 0.222000000000013E+000
 0.224000000000016E+000
 0.226000000000014E+000
 0.228000000000009E+000
 0.230000000000008E+000
 0.232000000000007E+000
 0.234000000000007E+000
 0.236000000000007E+000
 0.238000000000006E+000
 0.240000000000000E+000
 0.000000000000000E+000
 0.200000000000026E-002
 0.400000000000100E-002
 0.600000000000551E-002
 0.800000000000995E-002
 0.100000000000142E-001
 0.120000000000183E-001
 0.140000000000206E-001
 0.160000000000208E-001
 0.180000000000237E-001
 0.200000000000284E-001
 0.220000000000331E-001
 0.240000000000379E-001
 0.260000000000426E-001
 0.280000000000436E-001
 0.300000000000439E-001
 0.320000000000437E-001
 0.340000000000437E-001
 0.360000000000475E-001
 0.380000000000516E-001
 0.400000000000557E-001
 0.420000000000594E-001
 0.440000000000614E-001
 0.460000000000614E-001
 0.480000000000634E-001
 0.500000000000672E-001
 0.520000000000711E-001
 0.540000000000753E-001
 0.560000000000791E-001
 0.580000000000791E-001
 0.600000000000791E-001
 0.620000000000790E-001
 0.640000000000793E-001
 0.660000000000830E-001
 0.680000000000859E-001
 0.700000000000891E-001
 0.720000000000931E-001
 0.740000000000958E-001
 0.760000000000961E-001
 0.780000000000988E-001
 0.800000000001028E-001
 0.820000000001060E-001
 0.840000000001089E-001
 0.860000000001125E-001
 0.880000000001133E-001
 0.900000000001136E-001
 0.920000000001139E-001
 0.940000000001146E-001
 0.960000000001182E-001
 0.980000000001212E-001
 0.100000000000124E+000
 0.102000000000128E+000
 0.104000000000131E+000
 0.106000000000131E+000
 0.108000000000134E+000
 0.110000000000138E+000
 0.112000000000141E+000
 0.114000000000144E+000
 0.116000000000148E+000
 0.118000000000152E+000
 0.120000000000155E+000
 0.122000000000156E+000
 0.124000000000155E+000
 0.126000000000149E+000
 0.128000000000141E+000
 0.130000000000138E+000
 0.132000000000135E+000
 0.134000000000130E+000
 0.136000000000127E+000
 0.138000000000130E+000
 0.140000000000128E+000
 0.142000000000124E+000
 0.144000000000122E+000
 0.146000000000118E+000
 0.148000000000111E+000
 0.150000000000113E+000
 0.152000000000114E+000
 0.154000000000108E+000
 0.156000000000104E+000
 0.158000000000102E+000
 0.160000000000097E+000
 0.162000000000096E+000
 0.164000000000098E+000
 0.166000000000096E+000
 0.168000000000090E+000
 0.170000000000088E+000
 0.172000000000085E+000
 0.174000000000077E+000
 0.176000000000074E+000
 0.178000000000076E+000
 0.180000000000070E+000
 0.182000000000064E+000
 0.184000000000062E+000
 0.186000000000061E+000
 0.188000000000060E+000
 0.190000000000060E+000
 0.192000000000057E+000
 0.194000000000052E+000
 0.196000000000047E+000
 0.198000000000046E+000
 0.200000000000043E+000
 0.202000000000038E+000
 0.204000000000036E+000
 0.206000000000032E+000
 0.208000000000026E+000
 0.210000000000023E+000
 0.212000000000021E+000
 0.214000000000019E+000
 0.216000000000018E+000
 0.218000000000018E+000
 0.220000000000017E+000
 0.222000000000018E+000
 0.224000000000020E+000
 0.226000000000018E+000
 0.228000000000013E+000
 0.230000000000010E+000
 0.232000000000010E+000
 0.234000000000009E+000
 0.236000000000008E+000
 0.238000000000006E+000
 0.240000000000000E+000
 0.000000000000000E+000
 0.200000000000055E-002
 0.400000000000161E-002
 0.600000000000667E-002
 0.800000000001167E-002
 0.100000000000165E-001
 0.120000000000212E-001
 0.140000000000241E-001
 0.160000000000245E-001
 0.180000000000278E-001
 0.200000000000330E-001
 0.220000000000382E-001
 0.240000000000435E-001
 0.260000000000487E-001
 0.280000000000500E-001
 0.300000000000506E-001
 0.320000000000508E-001
 0.340000000000512E-001
 0.360000000000557E-001
 0.380000000000605E-001
 0.400000000000651E-001
 0.420000000000695E-001
 0.440000000000721E-001
 0.460000000000723E-001
 0.480000000000750E-001
 0.500000000000794E-001
 0.520000000000840E-001
 0.540000000000888E-001
 0.560000000000932E-001
 0.580000000000937E-001
 0.600000000000940E-001
 0.620000000000943E-001
 0.640000000000950E-001
 0.660000000000993E-001
 0.680000000001031E-001
 0.700000000001070E-001
 0.720000000001117E-001
 0.740000000001148E-001
 0.760000000001154E-001
 0.780000000001185E-001
 0.800000000001231E-001
 0.820000000001271E-001
 0.840000000001309E-001
 0.860000000001351E-001
 0.880000000001362E-001
 0.900000000001368E-001
 0.920000000001374E-001
 0.940000000001385E-001
 0.960000000001428E-001
 0.980000000001465E-001
 0.100000000000150E+000
 0.102000000000155E+000
 0.104000000000158E+000
 0.106000000000159E+000
 0.108000000000162E+000
 0.110000000000167E+000
 0.112000000000171E+000
 0.114000000000174E+000
 0.116000000000179E+000
 0.118000000000184E+000
 0.120000000000187E+000
 0.122000000000188E+000
 0.124000000000186E+000
 0.126000000000179E+000
 0.128000000000170E+000
 0.130000000000166E+000
 0.132000000000163E+000
 0.134000000000157E+000
 0.136000000000154E+000
 0.138000000000157E+000
 0.140000000000154E+000
 0.142000000000149E+000
 0.144000000000147E+000
 0.146000000000141E+000
 0.148000000000135E+000
 0.150000000000136E+000
 0.152000000000137E+000
 0.154000000000131E+000
 0.156000000000126E+000
 0.158000000000123E+000
 0.160000000000118E+000
 0.162000000000115E+000
 0.164000000000118E+000
 0.166000000000115E+000
 0.168000000000109E+000
 0.170000000000106E+000
 0.172000000000102E+000
 0.174000000000093E+000
 0.176000000000090E+000
 0.178000000000092E+000
 0.180000000000085E+000
 0.182000000000078E+000
 0.184000000000076E+000
 0.186000000000075E+000
 0.188000000000074E+000
 0.190000000000072E+000
 0.192000000000069E+000
 0.194000000000063E+000
 0.196000000000058E+000
 0.198000000000057E+000
 0.200000000000053E+000
 0.202000000000047E+000
 0.204000000000045E+000
 0.206000000000040E+000
 0.208000000000033E+000
 0.210000000000030E+000
 0.212000000000027E+000
 0.214000000000025E+000
 0.216000000000024E+000
 0.218000000000023E+000
 0.220000000000021E+000
 0.222000000000022E+000
 0.224000000000025E+000
 0.226000000000022E+000
 0.228000000000016E+000
 0.230000000000013E+000
 0.232000000000012E+000
 0.234000000000010E+000
 0.236000000000009E+000
 0.238000000000007E+000
 0.240000000000000E+000
 0.000000000000000E+000
 0.200000000000079E-002
 0.400000000000211E-002
 0.600000000000764E-002
 0.800000000001311E-002
 0.100000000000184E-001
 0.120000000000237E-001
 0.140000000000269E-001
 0.160000000000276E-001
 0.180000000000312E-001
 0.200000000000369E-001
 0.220000000000425E-001
 0.240000000000482E-001
 0.260000000000539E-001
 0.280000000000554E-001
 0.300000000000562E-001
 0.320000000000567E-001
 0.340000000000575E-001
 0.360000000000625E-001
 0.380000000000678E-001
 0.400000000000730E-001
 0.420000000000780E-001
 0.440000000000810E-001
 0.460000000000815E-001
 0.480000000000846E-001
 0.500000000000896E-001
 0.520000000000947E-001
 0.540000000001000E-001
 0.560000000001050E-001
 0.580000000001059E-001
 0.600000000001064E-001
 0.620000000001070E-001
 0.640000000001081E-001
 0.660000000001129E-001
 0.680000000001174E-001
 0.700000000001220E-001
 0.720000000001272E-001
 0.740000000001307E-001
 0.760000000001314E-001
 0.780000000001349E-001
 0.800000000001401E-001
 0.820000000001447E-001
 0.840000000001492E-001
 0.860000000001540E-001
 0.880000000001554E-001
 0.900000000001562E-001
 0.920000000001570E-001
 0.940000000001584E-001
 0.960000000001632E-001
 0.980000000001677E-001
 0.100000000000172E+000
 0.102000000000177E+000
 0.104000000000181E+000
 0.106000000000182E+000
 0.108000000000185E+000
 0.110000000000190E+000
 0.112000000000195E+000
 0.114000000000199E+000
 0.116000000000204E+000
 0.118000000000210E+000
 0.120000000000214E+000
 0.122000000000214E+000
 0.124000000000211E+000
 0.126000000000204E+000
 0.128000000000194E+000
 0.130000000000189E+000
 0.132000000000186E+000
 0.134000000000179E+000
 0.136000000000176E+000
 0.138000000000179E+000
 0.140000000000176E+000
 0.142000000000170E+000
 0.144000000000167E+000
 0.146000000000161E+000
 0.148000000000154E+000
 0.150000000000155E+000
 0.152000000000157E+000
 0.154000000000149E+000
 0.156000000000144E+000
 0.158000000000141E+000
 0.160000000000135E+000
 0.162000000000132E+000
 0.164000000000134E+000
 0.166000000000131E+000
 0.168000000000125E+000
 0.170000000000121E+000
 0.172000000000116E+000
 0.174000000000106E+000
 0.176000000000103E+000
 0.178000000000105E+000
 0.180000000000098E+000
 0.182000000000091E+000
 0.184000000000088E+000
 0.186000000000086E+000
 0.188000000000084E+000
 0.190000000000083E+000
 0.192000000000079E+000
 0.194000000000073E+000
 0.196000000000068E+000
 0.198000000000065E+000
 0.200000000000061E+000
 0.202000000000054E+000
 0.204000000000052E+000
 0.206000000000046E+000
 0.208000000000039E+000
 0.210000000000036E+000
 0.212000000000033E+000
 0.214000000000030E+000
 0.216000000000029E+000
 0.218000000000027E+000
 0.220000000000025E+000
 0.222000000000025E+000
 0.224000000000028E+000
 0.226000000000025E+000
 0.228000000000018E+000
 0.230000000000015E+000
 0.232000000000013E+000
 0.234000000000011E+000
 0.236000000000010E+000
 0.238000000000007E+000
 0.240000000000000E+000
 0.000000000000000E+000
 0.200000000000098E-002
 0.400000000000253E-002
 0.600000000000845E-002
 0.800000000001431E-002
 0.100000000000200E-001
 0.120000000000257E-001
 0.140000000000293E-001
 0.160000000000302E-001
 0.180000000000341E-001
 0.200000000000401E-001
 0.220000000000461E-001
 0.240000000000521E-001
 0.260000000000581E-001
 0.280000000000599E-001
 0.300000000000609E-001
 0.320000000000616E-001
 0.340000000000627E-001
 0.360000000000682E-001
 0.380000000000739E-001
 0.400000000000796E-001
 0.420000000000850E-001
 0.440000000000884E-001
 0.460000000000892E-001
 0.480000000000926E-001
 0.500000000000981E-001
 0.520000000001037E-001
 0.540000000001093E-001
 0.560000000001148E-001
 0.580000000001160E-001
 0.600000000001168E-001
 0.620000000001176E-001
 0.640000000001189E-001
 0.660000000001243E-001
 0.680000000001293E-001